[
    {
        "question": "What is the SI unit of force?",
        "answer": "Newton"
    },
    {
        "question": "What is the square root of 16?",
        "answer": "Four"
    },
    {
        "question": "What is the chemical symbol for water?",
        "answer": "H2O"
    },
    {
        "question": "What is the powerhouse of the cell?",
        "answer": "Mitochondria"
    },
    {
        "question": "What is the synonym of 'happy'?",
        "answer": "Joyful"
    },
    {
        "question": "What is the charge of an electron?",
        "answer": "Negative"
    },
    {
        "question": "What is the hardest natural substance?",
        "answer": "Diamond"
    },
    {
        "question": "What is the capital of France?",
        "answer": "Paris"
    },
    {
        "question": "What is the atomic number of hydrogen?",
        "answer": "One"
    },
    {
        "question": "What is the largest planet in our solar system?",
        "answer": "Jupiter"
    },
    {
        "question": "What is the process of converting liquid to gas?",
        "answer": "Evaporation"
    },
    {
        "question": "What is the main gas found in the air we breathe?",
        "answer": "Nitrogen"
    },
    {
        "question": "What is the boiling point of water in Celsius?",
        "answer": "Hundred"
    },
    {
        "question": "What is the smallest unit of life?",
        "answer": "Cell"
    },
    {
        "question": "What is the longest river in the world?",
        "answer": "Nile"
    },
    {
        "question": "What is the first element on the periodic table?",
        "answer": "Hydrogen"
    },
    {
        "question": "What is the speed of light?",
        "answer": "Constant"
    },
    {
        "question": "What is the main language spoken in Brazil?",
        "answer": "Portuguese"
    },
    {
        "question": "What is the capital of Italy?",
        "answer": "Rome"
    },
    {
        "question": "What is the formula for the area of a circle?",
        "answer": "Pi"
    },
    {
        "question": "What is the most abundant gas in Earth's atmosphere?",
        "answer": "Nitrogen"
    },
    {
        "question": "What is the symbol for gold?",
        "answer": "Au"
    },
    {
        "question": "What is the process by which plants make food?",
        "answer": "Photosynthesis"
    },
    {
        "question": "What is the universal solvent?",
        "answer": "Water"
    },
    {
        "question": "What is the closest star to Earth?",
        "answer": "Sun"
    },
    {
        "question": "What is the chemical formula for table salt?",
        "answer": "NaCl"
    },
    {
        "question": "What is the main ingredient in glass?",
        "answer": "Silica"
    },
    {
        "question": "What is the tallest mountain in the world?",
        "answer": "Everest"
    },
    {
        "question": "What is the basic unit of a chemical element?",
        "answer": "Atom"
    },
    {
        "question": "What is the most common blood type?",
        "answer": "O"
    },
    {
        "question": "What is the primary organ of the circulatory system?",
        "answer": "Heart"
    },
    {
        "question": "What is the chemical symbol for oxygen?",
        "answer": "O"
    },
    {
        "question": "What is the main component of the sun?",
        "answer": "Hydrogen"
    },
    {
        "question": "What is the chemical formula for carbon dioxide?",
        "answer": "CO2"
    },
    {
        "question": "What is the largest mammal?",
        "answer": "Whale"
    },
    {
        "question": "What is the chemical name for common baking soda?",
        "answer": "Sodium"
    },
    {
        "question": "What is the most reactive metal?",
        "answer": "Francium"
    },
    {
        "question": "What is the largest organ in the human body?",
        "answer": "Skin"
    },
    {
        "question": "What is the study of earthquakes called?",
        "answer": "Seismology"
    },
    {
        "question": "What is the main element in steel?",
        "answer": "Iron"
    },
    {
        "question": "What is the distance light travels in one year?",
        "answer": "Lightyear"
    },
    {
        "question": "What is the common name for sodium chloride?",
        "answer": "Salt"
    },
    {
        "question": "What is the process of cell division in eukaryotic cells?",
        "answer": "Mitosis"
    },
    {
        "question": "What is the most electronegative element?",
        "answer": "Fluorine"
    },
    {
        "question": "What is the primary source of energy for Earth's climate?",
        "answer": "Sun"
    },
    {
        "question": "What is the atomic number of carbon?",
        "answer": "Six"
    },
    {
        "question": "What is the standard unit of electrical resistance?",
        "answer": "Ohm"
    },
    {
        "question": "What is the symbol for potassium?",
        "answer": "K"
    },
    {
        "question": "What is the process of copying DNA called?",
        "answer": "Replication"
    },
    {
        "question": "What is the smallest bone in the human body?",
        "answer": "Stapes"
    },
    {
        "question": "What is the capital of Canada?",
        "answer": "Ottawa"
    },
    {
        "question": "What is the largest desert in the world?",
        "answer": "Sahara"
    },
    {
        "question": "What is the smallest continent?",
        "answer": "Australia"
    },
    {
        "question": "What is the chemical symbol for sodium?",
        "answer": "Na"
    },
    {
        "question": "What is the tallest mountain in Africa?",
        "answer": "Kilimanjaro"
    },
    {
        "question": "What is the smallest country in the world?",
        "answer": "Vatican City"
    },
    {
        "question": "What is the currency of Japan?",
        "answer": "Yen"
    },
    {
        "question": "What is the primary component of Earth's atmosphere?",
        "answer": "Nitrogen"
    },
    {
        "question": "What is the most spoken language in the world?",
        "answer": "Mandarin"
    },
    {
        "question": "What is the boiling point of water in Fahrenheit?",
        "answer": "212"
    },
    {
        "question": "What is the boiling point of ethanol in Celsius?",
        "answer": "78"
    },
    {
        "question": "What is the smallest ocean?",
        "answer": "Arctic"
    },
    {
        "question": "What is the main ingredient in traditional hummus?",
        "answer": "Chickpeas"
    },
    {
        "question": "What is the capital of Thailand?",
        "answer": "Bangkok"
    },
    {
        "question": "What is the main ingredient in sushi?",
        "answer": "Rice"
    },
    {
        "question": "What is the chemical formula for glucose?",
        "answer": "C6H12O6"
    },
    {
        "question": "What is the hottest planet in the solar system?",
        "answer": "Venus"
    },
    {
        "question": "What is the name of our galaxy?",
        "answer": "Milky Way"
    },
    {
        "question": "What is the chemical formula for ammonia?",
        "answer": "NH3"
    },
    {
        "question": "What is the most abundant element in the universe?",
        "answer": "Hydrogen"
    },
    {
        "question": "What is the capital of South Korea?",
        "answer": "Seoul"
    },
    {
        "question": "What is the most abundant metal in Earth's crust?",
        "answer": "Aluminium"
    },
    {
        "question": "What is the main element in diamonds?",
        "answer": "Carbon"
    },
    {
        "question": "What is the capital of Argentina?",
        "answer": "Buenos Aires"
    },
    {
        "question": "What is the chemical formula for carbon dioxide?",
        "answer": "CO2"
    },
    {
        "question": "What is the main ingredient in guacamole?",
        "answer": "Avocado"
    },
    {
        "question": "What is the process of making yogurt called?",
        "answer": "Fermentation"
    },
    {
        "question": "What is the primary fruit in a traditional Greek salad?",
        "answer": "Tomato"
    },
    {
        "question": "What is the capital of Brazil?",
        "answer": "Brasilia"
    },
    {
        "question": "What is the chemical symbol for potassium?",
        "answer": "K"
    },
    {
        "question": "What is the smallest unit of matter?",
        "answer": "Atom"
    },
    {
        "question": "What is the boiling point of mercury in Celsius?",
        "answer": "357"
    },
    {
        "question": "What is the capital of Mexico?",
        "answer": "Mexico City"
    },
    {
        "question": "What is the largest island in the world?",
        "answer": "Greenland"
    },
    {
        "question": "What is the chemical formula for sulfuric acid?",
        "answer": "H2SO4"
    },
    {
        "question": "What is the most commonly used gas in light bulbs?",
        "answer": "Argon"
    },
    {
        "question": "What is the process of converting a liquid into a solid?",
        "answer": "Freezing"
    },
    {
        "question": "What is the smallest unit of a language?",
        "answer": "Phoneme"
    },
    {
        "question": "What is the capital of Egypt?",
        "answer": "Cairo"
    },
    {
        "question": "What is the primary source of energy for photosynthesis?",
        "answer": "Sunlight"
    },
    {
        "question": "What is the hardest known substance?",
        "answer": "Diamond"
    },
    {
        "question": "What is the chemical symbol for silver?",
        "answer": "Ag"
    },
    {
        "question": "What is the longest bone in the human body?",
        "answer": "Femur"
    },
    {
        "question": "What is the primary language spoken in Spain?",
        "answer": "Spanish"
    },
    {
        "question": "What is the chemical symbol for calcium?",
        "answer": "Ca"
    },
    {
        "question": "What is the smallest planet in our solar system?",
        "answer": "Mercury"
    },
    {
        "question": "What is the largest ocean on Earth?",
        "answer": "Pacific"
    },
    {
        "question": "What is the main component of natural gas?",
        "answer": "Methane"
    },
    {
        "question": "What is the chemical symbol for chlorine?",
        "answer": "Cl"
    },
    {
        "question": "What is the capital of Australia?",
        "answer": "Canberra"
    },
    {
        "question": "What is the chemical formula for table sugar?",
        "answer": "C12H22O11"
    },
    {
        "question": "What is the largest lake in Africa?",
        "answer": "Lake Victoria"
    },
    {
        "question": "What is the currency of the United Kingdom?",
        "answer": "Pound"
    },
    {
        "question": "What is the main function of red blood cells?",
        "answer": "Oxygen transport"
    },
    {
        "question": "What is the boiling point of nitrogen in Celsius?",
        "answer": "Minus 196"
    },
    {
        "question": "What is the capital of India?",
        "answer": "New Delhi"
    },
    {
        "question": "What is the largest city in the United States by population?",
        "answer": "New York City"
    },
    {
        "question": "What is the main source of energy for the human body?",
        "answer": "Glucose"
    },
    {
        "question": "What is the chemical symbol for lead?",
        "answer": "Pb"
    },
    {
        "question": "What is the process of converting a solid into a gas?",
        "answer": "Sublimation"
    },
    {
        "question": "What is the most abundant element in the Earth's crust?",
        "answer": "Oxygen"
    },
    {
        "question": "What is the most spoken language in the world?",
        "answer": "Mandarin"
    },
    {
        "question": "What is the primary function of the mitochondria?",
        "answer": "Energy production"
    },
    {
        "question": "What is the chemical formula for hydrochloric acid?",
        "answer": "HCl"
    },
    {
        "question": "What is the name of the process where plants lose water through their leaves?",
        "answer": "Transpiration"
    },
    {
        "question": "What is the main source of energy for most life on Earth?",
        "answer": "Sunlight"
    },
    {
        "question": "What is the symbol for iron?",
        "answer": "Fe"
    },
    {
        "question": "What is the capital of Germany?",
        "answer": "Berlin"
    },
    {
        "question": "What is the chemical symbol for zinc?",
        "answer": "Zn"
    },
    {
        "question": "What is the largest hot desert in the world?",
        "answer": "Sahara"
    },
    {
        "question": "What is the study of plants called?",
        "answer": "Botany"
    },
    {
        "question": "What is the primary function of the human respiratory system?",
        "answer": "Gas exchange"
    },
    {
        "question": "What is the largest organ inside the human body?",
        "answer": "Liver"
    },
    {
        "question": "What is the capital of Kenya?",
        "answer": "Nairobi"
    },
    {
        "question": "What is the largest planet in the solar system?",
        "answer": "Jupiter"
    },
    {
        "question": "What is the capital of Turkey?",
        "answer": "Ankara"
    },
    {
        "question": "What is the chemical symbol for mercury?",
        "answer": "Hg"
    },
    {
        "question": "What is the name of the longest river in South America?",
        "answer": "Amazon"
    },
    {
        "question": "What is the capital of Norway?",
        "answer": "Oslo"
    },
    {
        "question": "What is the most common type of rock in Earth's crust?",
        "answer": "Igneous"
    },
    {
        "question": "What is the smallest bone in the human body?",
        "answer": "Stapes"
    },
    {
        "question": "What is the capital of the Netherlands?",
        "answer": "Amsterdam"
    },
    {
        "question": "What is the largest country in the world by land area?",
        "answer": "Russia"
    },
    {
        "question": "What is the chemical symbol for helium?",
        "answer": "He"
    },
    {
        "question": "What is the primary function of the kidneys?",
        "answer": "Filtration"
    },
    {
        "question": "What is the capital of Sweden?",
        "answer": "Stockholm"
    },
    {
        "question": "What is the chemical symbol for magnesium?",
        "answer": "Mg"
    },
    {
        "question": "What is the most common type of celestial object in the universe?",
        "answer": "Star"
    },
    {
        "question": "What is the main component of natural gas?",
        "answer": "Methane"
    },
    {
        "question": "What is the largest country in Africa?",
        "answer": "Algeria"
    },
    {
        "question": "What is the capital of Indonesia?",
        "answer": "Jakarta"
    },
    {
        "question": "What is the primary organ of the human immune system?",
        "answer": "Thymus"
    },
    {
        "question": "What is the chemical symbol for uranium?",
        "answer": "U"
    },
    {
        "question": "What is the most widely spoken language in Europe?",
        "answer": "English"
    },
    {
        "question": "What is the chemical formula for ethanol?",
        "answer": "C2H5OH"
    },
    {
        "question": "What is the capital of Israel?",
        "answer": "Jerusalem"
    },
    {
        "question": "What is the largest city in Australia by population?",
        "answer": "Sydney"
    },
    {
        "question": "What is the primary function of the human digestive system?",
        "answer": "Food breakdown"
    },
    {
        "question": "What is the capital of Portugal?",
        "answer": "Lisbon"
    },
    {
        "question": "What is the main element in the Earth's core?",
        "answer": "Iron"
    },
    {
        "question": "What is the smallest country in Africa?",
        "answer": "Seychelles"
    },
    {
        "question": "What is the chemical symbol for copper?",
        "answer": "Cu"
    },
    {
        "question": "What is the primary gas in the Earth's atmosphere?",
        "answer": "Nitrogen"
    },
    {
        "question": "What is the name of the process where liquid turns into gas?",
        "answer": "Evaporation"
    },
    {
        "question": "What is the primary component of Earth's crust?",
        "answer": "Silicon"
    },
    {
        "question": "What is the capital of Saudi Arabia?",
        "answer": "Riyadh"
    },
    {
        "question": "What is the most common element in the universe?",
        "answer": "Hydrogen"
    },
    {
        "question": "What is the study of weather called?",
        "answer": "Meteorology"
    },
    {
        "question": "What is the chemical symbol for tungsten?",
        "answer": "W"
    },
    {
        "question": "What is the name of the galaxy containing our solar system?",
        "answer": "Milky Way"
    },
    {
        "question": "What is the chemical formula for hydrochloric acid?",
        "answer": "HCl"
    },
    {
        "question": "What is the capital of China?",
        "answer": "Beijing"
    },
    {
        "question": "What is the most abundant gas in Earth's atmosphere?",
        "answer": "Nitrogen"
    },
    {
        "question": "What is the process of converting a solid directly into a gas?",
        "answer": "Sublimation"
    },
    {
        "question": "What is the smallest planet in our solar system?",
        "answer": "Mercury"
    },
    {
        "question": "What is the name of the process where plants make food?",
        "answer": "Photosynthesis"
    },
    {
        "question": "What is the primary function of the human skeletal system?",
        "answer": "Support"
    },
    {
        "question": "What is the chemical formula for sulfur dioxide?",
        "answer": "SO2"
    },
    {
        "question": "What is the most abundant element in the Earth's atmosphere?",
        "answer": "Nitrogen"
    },
    {
        "question": "What is the capital of South Africa?",
        "answer": "Pretoria"
    },
    {
        "question": "What is the main component of air?",
        "answer": "Nitrogen"
    },
    {
        "question": "What is the process by which plants lose water?",
        "answer": "Transpiration"
    },
    {
        "question": "What is the chemical symbol for lead?",
        "answer": "Pb"
    },
    {
        "question": "What is the capital of Singapore?",
        "answer": "Singapore"
    },
    {
        "question": "What is the most abundant element in the human body?",
        "answer": "Oxygen"
    },
    {
        "question": "What is the largest internal organ in the human body?",
        "answer": "Liver"
    },
    {
        "question": "What is the capital of New Zealand?",
        "answer": "Wellington"
    },
    {
        "question": "What is the study of plants called?",
        "answer": "Botany"
    },
    {
        "question": "What is the most common element in the universe?",
        "answer": "Hydrogen"
    },
    {
        "question": "What is the symbol for tin?",
        "answer": "Sn"
    },
    {
        "question": "What is the primary language spoken in Brazil?",
        "answer": "Portuguese"
    },
    {
        "question": "What is the process of converting liquid to solid called?",
        "answer": "Freezing"
    },
    {
        "question": "What is the chemical formula for sodium chloride?",
        "answer": "NaCl"
    },
    {
        "question": "What is the largest desert in the world?",
        "answer": "Sahara"
    },
    {
        "question": "What is the capital of France?",
        "answer": "Paris"
    },
    {
        "question": "What is the chemical symbol for potassium?",
        "answer": "K"
    },
    {
        "question": "What is the largest city in the United States by population?",
        "answer": "New York City"
    },
    {
        "question": "What is the chemical formula for glucose?",
        "answer": "C6H12O6"
    },
    {
        "question": "What is the largest island in the world?",
        "answer": "Greenland"
    },
    {
        "question": "What is the chemical symbol for cobalt?",
        "answer": "Co"
    },
    {
        "question": "What is the capital of Italy?",
        "answer": "Rome"
    },
    {
        "question": "What is the symbol for sulfur?",
        "answer": "S"
    },
    {
        "question": "What is the chemical formula for methane?",
        "answer": "CH4"
    },
    {
        "question": "What is the most common type of rock in the Earth's crust?",
        "answer": "Igneous"
    },
    {
        "question": "What is the capital of Colombia?",
        "answer": "Bogotá"
    },
    {
        "question": "What is the symbol for gold?",
        "answer": "Au"
    },
    {
        "question": "What is the primary source of energy for the Earth?",
        "answer": "Sun"
    },
    {
        "question": "What is the most abundant element in the universe?",
        "answer": "Hydrogen"
    },
    {
        "question": "What is the capital of Australia?",
        "answer": "Canberra"
    },
    {
        "question": "What is the main ingredient in traditional sushi?",
        "answer": "Rice"
    },
    {
        "question": "What is the most abundant element in the Earth's crust?",
        "answer": "Oxygen"
    },
    {
        "question": "What is the chemical formula for nitric acid?",
        "answer": "HNO3"
    },
    {
        "question": "What is the largest lake in the world by surface area?",
        "answer": "Caspian Sea"
    },
    {
        "question": "What is the study of the universe called?",
        "answer": "Astronomy"
    },
    {
        "question": "What is the chemical symbol for phosphorus?",
        "answer": "P"
    },
    {
        "question": "What is the capital of Switzerland?",
        "answer": "Bern"
    },
    {
        "question": "What is the largest city in Africa by population?",
        "answer": "Lagos"
    },
    {
        "question": "What is the most common type of rock on the Earth's surface?",
        "answer": "Igneous"
    },
    {
        "question": "What is the process of converting a liquid into a solid?",
        "answer": "Freezing"
    },
    {
        "question": "What is the chemical formula for sulfuric acid?",
        "answer": "H2SO4"
    },
    {
        "question": "What is the capital of Kenya?",
        "answer": "Nairobi"
    },
    {
        "question": "What is the most abundant gas in the Earth's atmosphere?",
        "answer": "Nitrogen"
    },
    {
        "question": "What is the primary function of the human liver?",
        "answer": "Detoxification"
    },
    {
        "question": "What is the chemical formula for sulfur dioxide?",
        "answer": "SO2"
    },
    {
        "question": "What is the most common element in the universe?",
        "answer": "Hydrogen"
    },
    {
        "question": "What is the chemical formula for ozone?",
        "answer": "O3"
    },
    {
        "question": "What is the primary language spoken in Italy?",
        "answer": "Italian"
    },
    {
        "question": "What is the chemical formula for sodium bicarbonate?",
        "answer": "NaHCO3"
    },
    {
        "question": "What is the largest planet in the solar system?",
        "answer": "Jupiter"
    },
    {
        "question": "What is the chemical symbol for magnesium?",
        "answer": "Mg"
    },
    {
        "question": "What is the largest desert in the world?",
        "answer": "Sahara"
    },
    {
        "question": "What is the capital of Portugal?",
        "answer": "Lisbon"
    },
    {
        "question": "What is the smallest continent?",
        "answer": "Australia"
    },
    {
        "question": "What is the process of converting a liquid to a solid?",
        "answer": "Freezing"
    },
    {
        "question": "What is the capital of Greece?",
        "answer": "Athens"
    }
]